********************************************************************************
*                       GENERAL UTILITY LATTICE PROGRAM                        *
*                                 Julian Gale                                  *
*                       Curtin Institute for Computation                       *
*                    School of Molecular and Life Sciences                     *
*                    Curtin University, Western Australia                      *
********************************************************************************
* Version = 5.2.0 * Last modified =  18th May 2020                             *
********************************************************************************
*  optimise     - perform optimisation run                                     *
*  conp         - constant pressure calculation                                *
*  property     - calculate properties for final geometry                      *
********************************************************************************
* anthracene isoPAHAP molecule test                                            *
********************************************************************************


  Job Started  at 15:29.26 17th May        2021                               

  Number of CPUs =     1


  Total number of configurations input =      1

********************************************************************************
*  Input for Configuration =   1                                               *
********************************************************************************

  Formula = C14H10                                                      

  Number of irreducible atoms/shells =      24


  Total number atoms/shells =      24

  Dimensionality = 0               :  Cluster


  Charge on cluster =  -0.000020


  Initial cluster dipoles : x =     -0.000000 e.Angs
                            y =      0.000000 e.Angs
                            z =     -0.056945 e.Angs

  Temperature of configuration =   0.00     K 

  Symmetry number =      1

  Cartesian coordinates of cluster :

--------------------------------------------------------------------------------
   No.  Atomic       x           y          z         Charge      Occupancy
        Label      (Angs)      (Angs)     (Angs)        (e)         (Frac)  
--------------------------------------------------------------------------------
      1 C3    c      0.7223 *    1.2236 *    0.0000 *   0.23448    1.000000    
      2 C3    c     -0.7223 *    1.2236 *    0.0000 *   0.23448    1.000000    
      3 C3    c      0.7223 *   -1.2236 *    0.0000 *   0.23448    1.000000    
      4 C3    c     -0.7223 *   -1.2236 *    0.0000 *   0.23448    1.000000    
      5 C4    c     -1.4032      0.0000      0.0000    -0.47174    1.000000    
      6 C4    c      1.4032 *    0.0000 *    0.0000 *  -0.47174    1.000000    
      7 C2    c      1.4068 *    2.4786 *    0.0000 *  -0.25252    1.000000    
      8 C2    c     -1.4068 *    2.4786 *    0.0000 *  -0.25252    1.000000    
      9 C2    c      1.4068 *   -2.4786 *    0.0000 *  -0.25252    1.000000    
     10 C2    c     -1.4068 *   -2.4786 *    0.0000 *  -0.25252    1.000000    
     11 C1    c      0.7129 *   -3.6594 *    0.5000 *  -0.11389    1.000000    
     12 C1    c     -0.7129 *   -3.6594 *    0.0000 *  -0.11389    1.000000    
     13 C1    c      0.7129 *    3.6594 *    0.0000 *  -0.11389    1.000000    
     14 C1    c     -0.7129 *    3.6594 *    0.0000 *  -0.11389    1.000000    
     15 H2    c      2.4940 *   -2.4751 *    0.0000 *   0.14291    1.000000    
     16 H1    c      1.2454 *   -4.6063 *    0.0000 *   0.12531    1.000000    
     17 H1    c     -1.2454 *   -4.6063 *    0.0000 *   0.12531    1.000000    
     18 H2    c     -2.4940 *   -2.4751 *    0.0000 *   0.14291    1.000000    
     19 H2    c      2.4940 *    2.4751 *    0.0000 *   0.14291    1.000000    
     20 H1    c      1.2454 *    4.6063 *    0.0000 *   0.12531    1.000000    
     21 H1    c     -1.2454 *    4.6063 *    0.0000 *   0.12531    1.000000    
     22 H2    c     -2.4940 *    2.4751 *    0.0000 *   0.14291    1.000000    
     23 H3    c     -2.4912 *    0.0000 *    0.0000 *   0.19915    1.000000    
     24 H3    c      2.4912 *    0.0000 *    0.0000 *   0.19915    1.000000    
--------------------------------------------------------------------------------



********************************************************************************
*  General input information                                                   *
********************************************************************************

  Species output for all configurations : 

--------------------------------------------------------------------------------
  Species    Type    Atomic    Atomic    Charge       Radii (Angs)     Library
                     Number     Mass       (e)     Cova   Ionic  VDW   Symbol
--------------------------------------------------------------------------------
    C3       Core        6      12.01   0.234480   0.770  0.000  1.530          
    C4       Core        6      12.01  -0.471740   0.770  0.000  1.530          
    C2       Core        6      12.01  -0.252520   0.770  0.000  1.530          
    C1       Core        6      12.01  -0.113890   0.770  0.000  1.530          
    H2       Core        1       1.01   0.142910   0.370  0.000  1.080          
    H1       Core        1       1.01   0.125310   0.370  0.000  1.080          
    H3       Core        1       1.01   0.199150   0.370  0.000  1.080          
--------------------------------------------------------------------------------


  Accuracy factor for short range sums = 12.000

  Electrostatics method = Direct Coulomb

  Analytic derivatives to be used

  Time limit = Infinity

  Maximum range for interatomic potentials =    100000.000000 Angstroms

  General interatomic potentials :

--------------------------------------------------------------------------------
Atom  Types   Potential      Parameter       Value         Units   Cutoffs(Ang)
  1     2                                                            Min /  Max 
--------------------------------------------------------------------------------
C1   c C2   c Harmonic      Harmonic k2      23497.674    eV*Ang^-2 0.000  2.000
                            Harmonic r0      1.3700000    Ang       
                            Harmonic k3      0.0000000    eV*Ang^-3 
                            Harmonic k4      0.0000000    eV*Ang^-4 
--------------------------------------------------------------------------------
C2   c C3   c Harmonic      Harmonic k2      19372.093    eV*Ang^-2 0.000  2.000
                            Harmonic r0      1.4300000    Ang       
                            Harmonic k3      0.0000000    eV*Ang^-3 
                            Harmonic k4      0.0000000    eV*Ang^-4 
--------------------------------------------------------------------------------
C3   c C4   c Harmonic      Harmonic k2      21518.605    eV*Ang^-2 0.000  2.000
                            Harmonic r0      1.4000000    Ang       
                            Harmonic k3      0.0000000    eV*Ang^-3 
                            Harmonic k4      0.0000000    eV*Ang^-4 
--------------------------------------------------------------------------------
C1   c C1   c Harmonic      Harmonic k2      19372.093    eV*Ang^-2 0.000  2.000
                            Harmonic r0      1.4200000    Ang       
                            Harmonic k3      0.0000000    eV*Ang^-3 
                            Harmonic k4      0.0000000    eV*Ang^-4 
--------------------------------------------------------------------------------
C3   c C3   c Harmonic      Harmonic k2      19372.093    eV*Ang^-2 0.000  2.000
                            Harmonic r0      1.4400000    Ang       
                            Harmonic k3      0.0000000    eV*Ang^-3 
                            Harmonic k4      0.0000000    eV*Ang^-4 
--------------------------------------------------------------------------------
H    c C    c Harmonic      Harmonic k2      16906.977    eV*Ang^-2 0.000  2.000
                            Harmonic r0      1.1000000    Ang       
                            Harmonic k3      0.0000000    eV*Ang^-3 
                            Harmonic k4      0.0000000    eV*Ang^-4 
--------------------------------------------------------------------------------

  General Three-body potentials :

--------------------------------------------------------------------------------
  Atoms       Potential      Parameter       Value         Units   Cutoffs(Ang)
  1 / 2 / 3                                                          Min /  Max 
--------------------------------------------------------------------------------
C2    core    Harmonic      Three-body cnst  2635.8634    eV*rad^-2 0.000  2.000
C1    core                  Three-body angl  120.50000    degrees   0.000  2.000
C3    core                  Three-body k4    0.0000000    eV*rad^-4 0.000  3.500
                            Three-body k3    0.0000000    eV*rad^-3 
--------------------------------------------------------------------------------
C1    core    Harmonic      Three-body cnst  2635.8634    eV*rad^-2 0.000  2.000
C1    core                  Three-body angl  120.70000    degrees   0.000  2.000
C2    core                  Three-body k4    0.0000000    eV*rad^-4 0.000  3.500
                            Three-body k3    0.0000000    eV*rad^-3 
--------------------------------------------------------------------------------
C3    core    Harmonic      Three-body cnst  2589.7416    eV*rad^-2 0.000  2.000
C2    core                  Three-body angl  118.70000    degrees   0.000  2.000
C3    core                  Three-body k4    0.0000000    eV*rad^-4 0.000  3.500
                            Three-body k3    0.0000000    eV*rad^-3 
--------------------------------------------------------------------------------
C3    core    Harmonic      Three-body cnst  1826.4250    eV*rad^-2 0.000  2.000
C2    core                  Three-body angl  121.80000    degrees   0.000  2.000
C4    core                  Three-body k4    0.0000000    eV*rad^-4 0.000  3.500
                            Three-body k3    0.0000000    eV*rad^-3 
--------------------------------------------------------------------------------
C1    core    Harmonic      Three-body cnst  1189.9436    eV*rad^-2 0.000  2.000
H1    core                  Three-body angl  119.70000    degrees   0.000  2.000
C2    core                  Three-body k4    0.0000000    eV*rad^-4 0.000  3.500
                            Three-body k3    0.0000000    eV*rad^-3 
--------------------------------------------------------------------------------
C2    core    Harmonic      Three-body cnst  1233.7593    eV*rad^-2 0.000  2.000
H2    core                  Three-body angl  119.80000    degrees   0.000  2.000
C1    core                  Three-body k4    0.0000000    eV*rad^-4 0.000  3.500
                            Three-body k3    0.0000000    eV*rad^-3 
--------------------------------------------------------------------------------
C4    core    Harmonic      Three-body cnst  1233.7593    eV*rad^-2 0.000  2.000
H3    core                  Three-body angl  119.50000    degrees   0.000  2.000
C3    core                  Three-body k4    0.0000000    eV*rad^-4 0.000  3.500
                            Three-body k3    0.0000000    eV*rad^-3 
--------------------------------------------------------------------------------

  General Four-body potentials :

--------------------------------------------------------------------------------
  Atoms       Potential      Parameter       Value         Units   Cutoffs(Ang)
  1 - 4                                                             Min /  Max 
--------------------------------------------------------------------------------
C1    core    Harmonic      Torsional const  331.61606    eV*rad^-2 0.000  2.000
C2    core                  Torsional phi0   180.00000    degrees   0.000  2.000
C3    core                                                          0.000  2.000
C4    core                                                          0.000  6.000
--------------------------------------------------------------------------------
C2    core    Harmonic      Torsional const  362.97892    eV*rad^-2 0.000  2.000
C3    core                  Torsional phi0   180.00000    degrees   0.000  2.000
C4    core                                                          0.000  2.000
C3    core                                                          0.000  6.000
--------------------------------------------------------------------------------
C1    core    Harmonic      Torsional const  388.11532    eV*rad^-2 0.000  2.000
C2    core                  Torsional phi0   0.0000000    degrees   0.000  2.000
C3    core                                                          0.000  2.000
C3    core                                                          0.000  6.000
--------------------------------------------------------------------------------
C2    core    Harmonic      Torsional const  388.11532    eV*rad^-2 0.000  2.000
C3    core                  Torsional phi0   0.0000000    degrees   0.000  2.000
C3    core                                                          0.000  2.000
C2    core                                                          0.000  6.000
--------------------------------------------------------------------------------
C2    core    Harmonic      Torsional const  365.05440    eV*rad^-2 0.000  2.000
C1    core                  Torsional phi0   0.0000000    degrees   0.000  2.000
C1    core                                                          0.000  2.000
C2    core                                                          0.000  6.000
--------------------------------------------------------------------------------
C1    core    Harmonic      Torsional const  388.11532    eV*rad^-2 0.000  2.000
C1    core                  Torsional phi0   0.0000000    degrees   0.000  2.000
C2    core                                                          0.000  2.000
C3    core                                                          0.000  6.000
--------------------------------------------------------------------------------
C2    core    Harmonic      Torsional const  396.87847    eV*rad^-2 0.000  2.000
C3    core                  Torsional phi0   180.00000    degrees   0.000  2.000
C3    core                                                          0.000  2.000
C4    core                                                          0.000  6.000
--------------------------------------------------------------------------------
C3    core    Harmonic      Torsional const  411.17625    eV*rad^-2 0.000  2.000
C4    core                  Torsional phi0   0.0000000    degrees   0.000  2.000
C3    core                                                          0.000  2.000
C3    core                                                          0.000  6.000
--------------------------------------------------------------------------------
C4    core    Harmonic      Torsional const  379.81339    eV*rad^-2 0.000  2.000
C3    core                  Torsional phi0   0.0000000    degrees   0.000  2.000
C3    core                                                          0.000  2.000
C4    core                                                          0.000  6.000
--------------------------------------------------------------------------------
C3    core    Harmonic      Torsional const  388.11532    eV*rad^-2 0.000  2.000
C3    core                  Torsional phi0   0.0000000    degrees   0.000  2.000
C4    core                                                          0.000  2.000
C3    core                                                          0.000  6.000
--------------------------------------------------------------------------------
H1    core    Harmonic      Torsional const  269.35157    eV*rad^-2 0.000  2.000
C1    core                  Torsional phi0   180.00000    degrees   0.000  2.000
C2    core                                                          0.000  2.000
C3    core                                                          0.000  6.000
--------------------------------------------------------------------------------
H1    core    Harmonic      Torsional const  308.09392    eV*rad^-2 0.000  2.000
C1    core                  Torsional phi0   180.00000    degrees   0.000  2.000
C1    core                                                          0.000  2.000
C2    core                                                          0.000  6.000
--------------------------------------------------------------------------------
H2    core    Harmonic      Torsional const  154.04696    eV*rad^-2 0.000  2.000
C2    core                  Torsional phi0   180.00000    degrees   0.000  2.000
C1    core                                                          0.000  2.000
C1    core                                                          0.000  6.000
--------------------------------------------------------------------------------
H2    core    Harmonic      Torsional const  154.04696    eV*rad^-2 0.000  2.000
C2    core                  Torsional phi0   180.00000    degrees   0.000  2.000
C3    core                                                          0.000  2.000
C3    core                                                          0.000  6.000
--------------------------------------------------------------------------------
H2    core    Harmonic      Torsional const  265.20061    eV*rad^-2 0.000  2.000
C2    core                  Torsional phi0   0.0000000    degrees   0.000  2.000
C3    core                                                          0.000  2.000
C4    core                                                          0.000  6.000
--------------------------------------------------------------------------------
H3    core    Harmonic      Torsional const  164.42438    eV*rad^-2 0.000  2.000
C4    core                  Torsional phi0   0.0000000    degrees   0.000  2.000
C3    core                                                          0.000  2.000
C2    core                                                          0.000  6.000
--------------------------------------------------------------------------------
H3    core    Harmonic      Torsional const  154.04696    eV*rad^-2 0.000  2.000
C4    core                  Torsional phi0   180.00000    degrees   0.000  2.000
C3    core                                                          0.000  2.000
C3    core                                                          0.000  6.000
--------------------------------------------------------------------------------
H1    core    Harmonic      Torsional const  228.76435    eV*rad^-2 0.000  2.000
C1    core                  Torsional phi0   0.0000000    degrees   0.000  2.000
C2    core                                                          0.000  2.000
H2    core                                                          0.000  6.000
--------------------------------------------------------------------------------
H1    core    Harmonic      Torsional const  228.76435    eV*rad^-2 0.000  2.000
C1    core                  Torsional phi0   0.0000000    degrees   0.000  2.000
C1    core                                                          0.000  2.000
H1    core                                                          0.000  6.000
--------------------------------------------------------------------------------

********************************************************************************
*  Output for configuration   1                                                *
********************************************************************************


  Components of energy : 

--------------------------------------------------------------------------------
  Interatomic potentials     =         262.25615259 eV    
  Three-body potentials      =          84.80343367 eV    
  Four-body potentials       =         520.22329748 eV    
  Improper torsions          =           0.00000000 eV    
  Out of plane potentials    =           0.00000000 eV    
  Monopole - monopole (real) =          -8.22718039 eV    
--------------------------------------------------------------------------------
  Total lattice energy       =         859.05570335 eV    
--------------------------------------------------------------------------------
  Total lattice energy       =           82885.7435 kJ/mol
--------------------------------------------------------------------------------


  Number of variables =       69

  Maximum number of calculations  =          1000
  Maximum Hessian update interval =            10
  Maximum step size               =   1.000000000
  Maximum parameter tolerance     =   0.000010000
  Maximum function  tolerance     =   0.000010000
  Maximum gradient  tolerance     =   0.001000000
  Maximum gradient  component     =   0.010000000

  Symmetry not applied to optimisation

  Cell parameters to be optimised using strains

  Newton-Raphson optimiser to be used

  BFGS hessian update to be used

  Lower half triangular hessian to be used

  Start of cluster optimisation :

  Cycle:      0 Energy:       859.055703  Gnorm:     83.261001  CPU:    0.076
  ** Hessian calculated **
  Cycle:      1 Energy:       451.149438  Gnorm:     45.237862  CPU:    0.127
  ** Hessian calculated **
  Cycle:      2 Energy:        63.070523  Gnorm:     20.917595  CPU:    0.132
  ** Hessian calculated **
  Cycle:      3 Energy:        -7.362145  Gnorm:      1.493641  CPU:    0.136
  ** Hessian calculated **
  Cycle:      4 Energy:        -8.142664  Gnorm:      0.126321  CPU:    0.140
  ** Hessian calculated **
  Cycle:      5 Energy:        -8.145364  Gnorm:      0.000048  CPU:    0.144


  **** Optimisation achieved ****


  Final energy =      -8.14536387 eV
  Final Gnorm  =       0.00000534

  Components of energy : 

--------------------------------------------------------------------------------
  Interatomic potentials     =           0.00110065 eV    
  Three-body potentials      =           0.01985312 eV    
  Four-body potentials       =           0.00000000 eV    
  Improper torsions          =           0.00000000 eV    
  Out of plane potentials    =           0.00000000 eV    
  Monopole - monopole (real) =          -8.16631763 eV    
--------------------------------------------------------------------------------
  Total lattice energy       =          -8.14536387 eV    
--------------------------------------------------------------------------------
  Total lattice energy       =            -785.9031 kJ/mol
--------------------------------------------------------------------------------

  Final cartesian coordinates of atoms :

--------------------------------------------------------------------------------
   No.  Atomic        x           y          z          Radius
        Label       (Angs)      (Angs)     (Angs)       (Angs) 
--------------------------------------------------------------------------------
     1  C3    c     0.725984    1.158368   -0.375592    0.000000
     2  C3    c    -0.702476    1.195976   -0.196409    0.000000
     3  C3    c     0.689855   -1.269530   -0.154034    0.000000
     4  C3    c    -0.738606   -1.231922    0.025149    0.000000
     5  C4    c    -1.403188    0.000000    0.000000    0.000000
     6  C4    c     1.390567   -0.073553   -0.350443    0.000000
     7  C2    c     1.427666    2.388353   -0.575164    0.000000
     8  C2    c    -1.367016    2.461931   -0.224605    0.000000
     9  C2    c     1.354395   -2.535484   -0.125838    0.000000
    10  C2    c    -1.440287   -2.461907    0.224722    0.000000
    11  C1    c     0.643767   -3.690525    0.068181    0.000000
    12  C1    c    -0.764579   -3.653447    0.244841    0.000000
    13  C1    c     0.751957    3.579893   -0.595284    0.000000
    14  C1    c    -0.656388    3.616972   -0.418624    0.000000
    15  H2    c     2.445069   -2.580889   -0.261159    0.000000
    16  H1    c     1.168995   -4.656825    0.087404    0.000000
    17  H1    c    -1.318144   -4.591344    0.399386    0.000000
    18  H2    c    -2.531459   -2.449868    0.363087    0.000000
    19  H2    c     2.518837    2.376315   -0.713530    0.000000
    20  H1    c     1.305522    4.517790   -0.749828    0.000000
    21  H1    c    -1.181617    4.583271   -0.437847    0.000000
    22  H2    c    -2.457691    2.507336   -0.089284    0.000000
    23  H3    c    -2.494206    0.028724    0.136855    0.000000
    24  H3    c     2.481584   -0.102278   -0.487298    0.000000
--------------------------------------------------------------------------------


  Final Cartesian derivatives :

--------------------------------------------------------------------------------
   No.  Atomic          x             y             z           Radius
        Label       (eV/Angs)     (eV/Angs)    (eV/Angs)      (eV/Angs)
--------------------------------------------------------------------------------
      1 C3    c      -0.000003      0.000006     -0.000000      0.000000
      2 C3    c       0.000022      0.000027     -0.000005      0.000000
      3 C3    c       0.000013      0.000007     -0.000003      0.000000
      4 C3    c      -0.000003      0.000110     -0.000009      0.000000
      5 C4    c       0.000000      0.000000      0.000000      0.000000
      6 C4    c       0.000003      0.000010     -0.000001      0.000000
      7 C2    c       0.000012     -0.000015     -0.000000      0.000000
      8 C2    c       0.000011      0.000015     -0.000003      0.000000
      9 C2    c       0.000033      0.000081     -0.000011      0.000000
     10 C2    c      -0.000007     -0.000107      0.000010      0.000000
     11 C1    c       0.000181     -0.000002     -0.000023      0.000000
     12 C1    c      -0.000162      0.000034      0.000018      0.000000
     13 C1    c      -0.000016      0.000003      0.000002      0.000000
     14 C1    c       0.000020     -0.000023     -0.000001      0.000000
     15 H2    c       0.000005      0.000000     -0.000001      0.000000
     16 H1    c      -0.000156     -0.000045      0.000024      0.000000
     17 H1    c       0.000076     -0.000022     -0.000008      0.000000
     18 H2    c       0.000013      0.000006     -0.000002      0.000000
     19 H2    c      -0.000046      0.000003      0.000006      0.000000
     20 H1    c      -0.000025     -0.000025      0.000005      0.000000
     21 H1    c       0.000008     -0.000015      0.000000      0.000000
     22 H2    c       0.000030      0.000002     -0.000004      0.000000
     23 H3    c       0.000010     -0.000003     -0.000001      0.000000
     24 H3    c      -0.000033      0.000000      0.000004      0.000000
--------------------------------------------------------------------------------
  Maximum abs         0.000181      0.000110      0.000024      0.000000
--------------------------------------------------------------------------------


  Born effective charge tensors : 

-------------------------------------------------------------------------------
  Atom             x           y             z
-------------------------------------------------------------------------------
    1 C3    x       0.2345      0.0000      0.0000
            y       0.0000      0.2345      0.0000
            z       0.0000      0.0000      0.2345
-------------------------------------------------------------------------------
    2 C3    x       0.2345      0.0000      0.0000
            y       0.0000      0.2345      0.0000
            z       0.0000      0.0000      0.2345
-------------------------------------------------------------------------------
    3 C3    x       0.2345      0.0000      0.0000
            y       0.0000      0.2345      0.0000
            z       0.0000      0.0000      0.2345
-------------------------------------------------------------------------------
    4 C3    x       0.2345      0.0000      0.0000
            y       0.0000      0.2345      0.0000
            z       0.0000      0.0000      0.2345
-------------------------------------------------------------------------------
    5 C4    x      -0.4717      0.0000      0.0000
            y       0.0000     -0.4717      0.0000
            z       0.0000      0.0000     -0.4717
-------------------------------------------------------------------------------
    6 C4    x      -0.4717      0.0000      0.0000
            y       0.0000     -0.4717      0.0000
            z       0.0000      0.0000     -0.4717
-------------------------------------------------------------------------------
    7 C2    x      -0.2525      0.0000      0.0000
            y       0.0000     -0.2525      0.0000
            z       0.0000      0.0000     -0.2525
-------------------------------------------------------------------------------
    8 C2    x      -0.2525      0.0000      0.0000
            y       0.0000     -0.2525      0.0000
            z       0.0000      0.0000     -0.2525
-------------------------------------------------------------------------------
    9 C2    x      -0.2525      0.0000      0.0000
            y       0.0000     -0.2525      0.0000
            z       0.0000      0.0000     -0.2525
-------------------------------------------------------------------------------
   10 C2    x      -0.2525      0.0000      0.0000
            y       0.0000     -0.2525      0.0000
            z       0.0000      0.0000     -0.2525
-------------------------------------------------------------------------------
   11 C1    x      -0.1139      0.0000      0.0000
            y       0.0000     -0.1139      0.0000
            z       0.0000      0.0000     -0.1139
-------------------------------------------------------------------------------
   12 C1    x      -0.1139      0.0000      0.0000
            y       0.0000     -0.1139      0.0000
            z       0.0000      0.0000     -0.1139
-------------------------------------------------------------------------------
   13 C1    x      -0.1139      0.0000      0.0000
            y       0.0000     -0.1139      0.0000
            z       0.0000      0.0000     -0.1139
-------------------------------------------------------------------------------
   14 C1    x      -0.1139      0.0000      0.0000
            y       0.0000     -0.1139      0.0000
            z       0.0000      0.0000     -0.1139
-------------------------------------------------------------------------------
   15 H2    x       0.1429      0.0000      0.0000
            y       0.0000      0.1429      0.0000
            z       0.0000      0.0000      0.1429
-------------------------------------------------------------------------------
   16 H1    x       0.1253      0.0000      0.0000
            y       0.0000      0.1253      0.0000
            z       0.0000      0.0000      0.1253
-------------------------------------------------------------------------------
   17 H1    x       0.1253      0.0000      0.0000
            y       0.0000      0.1253      0.0000
            z       0.0000      0.0000      0.1253
-------------------------------------------------------------------------------
   18 H2    x       0.1429      0.0000      0.0000
            y       0.0000      0.1429      0.0000
            z       0.0000      0.0000      0.1429
-------------------------------------------------------------------------------
   19 H2    x       0.1429      0.0000      0.0000
            y       0.0000      0.1429      0.0000
            z       0.0000      0.0000      0.1429
-------------------------------------------------------------------------------
   20 H1    x       0.1253      0.0000      0.0000
            y       0.0000      0.1253      0.0000
            z       0.0000      0.0000      0.1253
-------------------------------------------------------------------------------
   21 H1    x       0.1253      0.0000      0.0000
            y       0.0000      0.1253      0.0000
            z       0.0000      0.0000      0.1253
-------------------------------------------------------------------------------
   22 H2    x       0.1429      0.0000      0.0000
            y       0.0000      0.1429      0.0000
            z       0.0000      0.0000      0.1429
-------------------------------------------------------------------------------
   23 H3    x       0.1992      0.0000      0.0000
            y       0.0000      0.1992      0.0000
            z       0.0000      0.0000      0.1992
-------------------------------------------------------------------------------
   24 H3    x       0.1992      0.0000      0.0000
            y       0.0000      0.1992      0.0000
            z       0.0000      0.0000      0.1992
-------------------------------------------------------------------------------




  Moment of inertia tensor (10^-46 x kgm^2): 

-------------------------------------------------------------------------------
                x           y           z           Principal axis system
-------------------------------------------------------------------------------
       x        185.93       -1.72        5.10           39.286654
       y         -1.72       40.83       16.64          185.335674
       z          5.10       16.64      222.48          224.622328
-------------------------------------------------------------------------------
  Centre of mass (Ang) =    -0.006311    -0.036777    -0.175221
-------------------------------------------------------------------------------


  Time to end of optimisation =       0.1877 seconds


  Peak dynamic memory used =       1.96 MB 


  Timing analysis for GULP :

--------------------------------------------------------------------------------
  Task / Subroutine                                          Time (Seconds)
--------------------------------------------------------------------------------
  Calculation of real space energy and derivatives                0.0065
  Calculation of three-body energy and derivatives                0.0042
  Calculation of four-body energy and derivatives                 0.0132
  Calculation of matrix inversion                                 0.0471
--------------------------------------------------------------------------------
  Total CPU time                                                  0.1878
--------------------------------------------------------------------------------


  Job Finished at 15:29.26 17th May        2021                               

